<?xml version="1.0" encoding="UTF-8"?>

<!-- generated on 2024-05-08 17:38:21 by Eclipse SUMO sumo Version 1.19.0
<configuration xmlns:xsi="http://www.w3.org/2001/XMLSchema-instance" xsi:noNamespaceSchemaLocation="http://sumo.dlr.de/xsd/sumoConfiguration.xsd">

    <input>
        <net-file value="C:\Users\USUARIO\Sumo\2024-05-08-17-38-10\osm.net.xml.gz"/>
        <route-files value="C:\Users\USUARIO\Sumo\2024-05-08-17-38-10\trips.trips.xml"/>
        <additional-files value="C:\Users\USUARIO\Sumo\2024-05-08-17-38-10\osm_stops.add.xml"/>
    </input>

    <output>
        <vehroute-output value="C:\Users\USUARIO\Sumo\2024-05-08-17-38-10\vehroutes.xml"/>
        <stop-output value="C:\Users\USUARIO\Sumo\2024-05-08-17-38-10\stopinfos.xml"/>
    </output>

    <time>
        <begin value="0.0"/>
    </time>

    <processing>
        <ignore-route-errors value="true"/>
    </processing>

    <routing>
        <device.rerouting.adaptation-interval value="0"/>
    </routing>

    <report>
        <aggregate-warnings value="5"/>
        <error-log value="C:\Users\USUARIO\Sumo\2024-05-08-17-38-10\trips.trips.xml.errorlog"/>
        <no-step-log value="true"/>
    </report>

</configuration>
-->

<routes xmlns:xsi="http://www.w3.org/2001/XMLSchema-instance" xsi:noNamespaceSchemaLocation="http://sumo.dlr.de/xsd/routes_file.xsd">
    <vehicle id="0_bus_Albrook_-_Vía_España_-_Gran_Estación:0" type="pt_bus" depart="15.00" departLane="3" arrival="211.00">
        <route edges="660840509 265035146#0 265035146#1 382351216#0 382351216#1 382351216#2 382351216#3 31845292#0 31845292#1 31845292#2 31845292#3 618968690#0 618968690#1 618965295#3 618965295#4 618965295#5 618965294#0 618965294#1 618965294#2 618965294#3 618965294#4 557087597#0 557087597#1 557087597#2 265035149 265035150 -265035162#0 -265035161"/>
        <stop busStop="-356508487" duration="30.00"/>
    </vehicle>

    <vehicle id="1_bus_Tocumen_-_Via_España_-_Albrook:0" type="pt_bus" depart="52.00" departLane="0" arrival="244.00">
        <route edges="158187043#0 158187043#1 158187043#2 158187043#3 557053863#0 557053863#1 557053863#2 557053863#3 557053863#4 557053863#6 557053863#7 557053863#8 557053863#9 557053863#10 557053863#10-AddedOffRampEdge 557053863#11"/>
        <stop busStop="2701746132" duration="30.00"/>
    </vehicle>

    <vehicle id="2_bus_Alcalde_Díaz_-_Via_España_-_Estación_Marañón:0" type="pt_bus" depart="133.00" departLane="0" arrival="316.00">
        <route edges="158187043#0 158187043#1 158187043#2 158187043#3 557053863#0 557053863#1 557053863#2 557053863#3 557053863#4 557053863#6 557053863#7 557053863#8 557053863#9 557053863#10 557053863#10-AddedOffRampEdge 557053863#11"/>
        <stop busStop="2701746132" duration="30.00"/>
    </vehicle>

    <vehicle id="3_bus_Albrook_-_Via_España_-_Los_Andes:0" type="pt_bus" depart="165.00" departLane="3" arrival="376.00">
        <route edges="660840509 265035146#0 265035146#1 382351216#0 382351216#1 382351216#2 382351216#3 31845292#0 31845292#1 31845292#2 31845292#3 618968690#0 618968690#1 618965295#3 618965295#4 618965295#5 618965294#0 618965294#1 618965294#2 618965294#3 618965294#4 557087597#0 557087597#1 557087597#2 265035149 265035150 -265035162#0 -265035161"/>
        <stop busStop="-356508487" duration="30.00"/>
    </vehicle>

    <vehicle id="4_subway_L1:0" type="pt_subway" depart="383.00" departLane="0" arrival="1185.00">
        <route edges="-1257873220#0"/>
        <stop busStop="-2618155816" duration="30.00"/>
        <stop busStop="2618155178" duration="30.00"/>
        <stop busStop="2618155177" duration="30.00"/>
        <stop busStop="3529301119" duration="30.00"/>
        <stop busStop="3529301122" duration="30.00"/>
        <stop busStop="2618155175" duration="30.00"/>
        <stop busStop="2618155174" duration="30.00"/>
        <stop busStop="2618151444" duration="30.00"/>
        <stop busStop="2618136969" duration="30.00"/>
        <stop busStop="5208805274" duration="30.00"/>
    </vehicle>

    <vehicle id="6_subway_L2:0" type="pt_subway" depart="441.00" departLane="0" arrival="1342.00">
        <route edges="684868237"/>
        <stop busStop="6417104467" duration="30.00"/>
        <stop busStop="6416942637" duration="30.00"/>
        <stop busStop="6416942690" duration="30.00"/>
        <stop busStop="6416933278" duration="30.00"/>
        <stop busStop="6416942721" duration="30.00"/>
        <stop busStop="6416942751" duration="30.00"/>
        <stop busStop="6416942791" duration="30.00"/>
        <stop busStop="6416933276" duration="30.00"/>
        <stop busStop="6416933275" duration="30.00"/>
        <stop busStop="6416933273" duration="30.00"/>
    </vehicle>

    <vehicle id="7_subway_L2:1" type="pt_subway" depart="535.00" departLane="0" arrival="1457.00">
        <route edges="684868250"/>
        <stop busStop="6416933272" duration="30.00"/>
        <stop busStop="6416933274" duration="30.00"/>
        <stop busStop="6416933277" duration="30.00"/>
        <stop busStop="6416942785" duration="30.00"/>
        <stop busStop="6416942764" duration="30.00"/>
        <stop busStop="6416942736" duration="30.00"/>
        <stop busStop="6416933279" duration="30.00"/>
        <stop busStop="6416942683" duration="30.00"/>
        <stop busStop="6416942636" duration="30.00"/>
        <stop busStop="6417104466" duration="30.00"/>
    </vehicle>

    <vehicle id="5_subway_L1:1" type="pt_subway" depart="1185.00" departLane="0" arrival="1987.00">
        <route edges="-346387795"/>
        <stop busStop="-5208805274" duration="30.00"/>
        <stop busStop="-2618136969" duration="30.00"/>
        <stop busStop="-2618151444" duration="30.00"/>
        <stop busStop="-2618155174" duration="30.00"/>
        <stop busStop="-2618155175" duration="30.00"/>
        <stop busStop="-3529301122" duration="30.00"/>
        <stop busStop="-3529301119" duration="30.00"/>
        <stop busStop="-2618155177" duration="30.00"/>
        <stop busStop="-2618155178" duration="30.00"/>
        <stop busStop="2618155816" duration="30.00"/>
    </vehicle>

</routes>
